file 270127 1733766703                                          
version 3
run Gpsr-0-20241209-23:21:17-16036
attr configname Gpsr
attr datetime 20241209-23:21:17
attr datetimef 20241209-232117
attr experiment Gpsr
attr inifile omnetpp.ini
attr iterationvars ""
attr iterationvarsd ""
attr iterationvarsf ""
attr measurement ""
attr network ManetprotocolsShowcaseA
attr processid 16036
attr repetition 0
attr replication #0
attr resultdir results
attr runnumber 0
attr seedset 0
config image-path ../../images
config network ManetprotocolsShowcaseA
config *.*.routing.typename Gpsr
config **.planarizationMode "\"RNG\""
config **.displayBubbles true
config **.transmitter.power 1.25mW
config *.visualizer.*.networkRouteVisualizer[0].displayRoutes true
config *.visualizer.*.networkRouteVisualizer[0].packetFilter "\"*ping*\""
config **.displayCommunicationRanges true
config *.configurator.addStaticRoutes false
config **.netmaskRoutes "\"\""
config *.source.numApps 1
config *.source.app[0].typename PingApp
config *.source.app[0].destAddr "\"destination\""
config *.source.app[0].printPing true
config *.visualizer.*.numDataLinkVisualizers 5
config *.visualizer.*.dataLinkVisualizer[*].activityLevel "\"peer\""
config *.visualizer.*.dataLinkVisualizer[*].displayLinks true
config *.visualizer.*.dataLinkVisualizer[0].packetFilter "\"aodv::Rreq or GPSRBeacon\""
config *.visualizer.*.dataLinkVisualizer[1].packetFilter "\"ping* or UDP*\""
config *.visualizer.*.dataLinkVisualizer[1].color "\"blue\""
config *.visualizer.*.dataLinkVisualizer[2].packetFilter "\"aodv::Rrep\""
config *.visualizer.*.dataLinkVisualizer[2].color "\"darkslategray\""
config *.visualizer.*.dataLinkVisualizer[3].packetFilter "\"aodv::Rerr\""
config *.visualizer.*.dataLinkVisualizer[3].color "\"red\""
config *.visualizer.*.dataLinkVisualizer[4].packetFilter "\"Hello\""
config *.visualizer.*.dataLinkVisualizer[4].color "\"green\""
config **.wlan[*].bitrate 24Mbps
config **.arp.typename GlobalArp

vector 0 ManetprotocolsShowcaseA.source.lo[0].lo rcvdPkFromHl:vector(packetBytes) ETV
attr interpolationmode none
attr recordingmode vector(packetBytes)
attr source packetReceivedFromUpper
attr title "packets received from higher layer, packetBytes"
vector 1 ManetprotocolsShowcaseA.source.lo[0].lo passedUpPk:vector(packetBytes) ETV
attr interpolationmode none
attr recordingmode vector(packetBytes)
attr source packetSentToUpper
attr title "packets passed to higher layer, packetBytes"
vector 2 ManetprotocolsShowcaseA.source.lo[0] packetDropInterfaceDown:vector(packetBytes) ETV
attr interpolationmode none
attr recordingmode vector(packetBytes)
attr source packetDropReasonIsInterfaceDown(packetDropped)
attr title "packet drops: interface down, packetBytes"
vector 3 ManetprotocolsShowcaseA.source.lo[0] packetDropNoCarrier:vector(packetBytes) ETV
attr interpolationmode none
attr recordingmode vector(packetBytes)
attr source packetDropReasonIsNoCarrier(packetDropped)
attr title "packet drops: no carrier, packetBytes"
vector 4 ManetprotocolsShowcaseA.source.wlan[0].mac.dcf.channelAccess.pendingQueue queueLength:vector ETV
attr autoWarmupFilter false
attr interpolationmode sample-hold
attr recordingmode vector
attr source "warmup(atomic(constant0(packetPushEnded) + count(packetPushStarted) - count(packetPulled) - count(packetRemoved) - count(packetDropped)))"
attr title "queue length"
attr unit pk
vector 5 ManetprotocolsShowcaseA.source.wlan[0].mac.dcf.channelAccess.pendingQueue queueBitLength:vector ETV
attr autoWarmupFilter false
attr interpolationmode sample-hold
attr recordingmode vector
attr source "warmup(atomic(constant0(packetPushEnded) + sum(packetLength(packetPushStarted)) - sum(packetLength(packetPulled)) - sum(packetLength(packetRemoved)) - sum(packetLength(packetDropped))))"
attr title "queue bit length"
attr unit b
vector 6 ManetprotocolsShowcaseA.source.wlan[0].mac.dcf.channelAccess.pendingQueue queueingTime:vector ETV
attr interpolationmode none
attr recordingmode vector
attr source queueingTime(packetPulled)
attr title "queueing times"
attr unit s
vector 7 ManetprotocolsShowcaseA.source.wlan[0].mac.dcf.channelAccess.pendingQueue incomingPacketLengths:vector ETV
attr interpolationmode none
attr recordingmode vector
attr source packetLength(packetPushStarted)
attr title "incoming packet lengths"
attr unit b
vector 8 ManetprotocolsShowcaseA.source.wlan[0].mac.dcf.channelAccess.pendingQueue incomingDataRate:vector ETV
attr interpolationmode linear
attr recordingmode vector
attr source throughput(packetPushStarted)
attr title "incoming datarate"
attr unit bps
vector 9 ManetprotocolsShowcaseA.source.wlan[0].mac.dcf.channelAccess.pendingQueue outgoingPacketLengths:vector ETV
attr interpolationmode none
attr recordingmode vector
attr source packetLength(packetPulled)
attr title "outgoing packet lengths"
attr unit b
vector 10 ManetprotocolsShowcaseA.source.wlan[0].mac.dcf.channelAccess.pendingQueue outgoingDataRate:vector ETV
attr interpolationmode linear
attr recordingmode vector
attr source throughput(packetPulled)
attr title "outgoing datarate"
attr unit bps
vector 11 ManetprotocolsShowcaseA.source.wlan[0].mac.dcf.channelAccess.pendingQueue droppedPacketLengthsQueueOverflow:vector ETV
attr interpolationmode none
attr recordingmode vector
attr source packetLength(packetDropReasonIsQueueOverflow(packetDropped))
attr title "dropped packet lengths: queue overflow"
attr unit b
vector 12 ManetprotocolsShowcaseA.source.wlan[0].mac.dcf.channelAccess.pendingQueue flowQueueingTime:vector ETV
attr interpolationmode none
attr recordingmode vector
attr source queueingTime(demuxFlow(packetPulled))
attr title "flow queueing times"
attr unit s
vector 13 ManetprotocolsShowcaseA.source.wlan[0].mac.dcf.channelAccess.pendingQueue flowIncomingDataRate:vector ETV
attr interpolationmode linear
attr recordingmode vector
attr source throughput(flowPacketLength(demuxFlow(packetPushStarted)))
attr title "flow specific incoming data rate"
attr unit bps
vector 14 ManetprotocolsShowcaseA.source.wlan[0].mac.dcf.channelAccess.pendingQueue flowOutgoingDataRate:vector ETV
attr interpolationmode linear
attr recordingmode vector
attr source throughput(flowPacketLength(demuxFlow(packetPulled)))
attr title "flow specific outgoing data rate"
attr unit bps
vector 15 ManetprotocolsShowcaseA.source.wlan[0].mac.dcf.channelAccess.inProgressFrames queueingTime:vector ETV
attr interpolationmode none
attr recordingmode vector
attr source queueingTime(packetDequeued)
attr title "queueing times"
vector 16 ManetprotocolsShowcaseA.source.wlan[0].mac.dcf.channelAccess.inProgressFrames queueLength:vector ETV
attr autoWarmupFilter false
attr interpolationmode sample-hold
attr recordingmode vector
attr source "warmup(count(packetEnqueued) - count(packetDequeued))"
attr title "queue length"
vector 17 ManetprotocolsShowcaseA.source.wlan[0].mac.dcf.channelAccess.contention backoffPeriodGenerated:vector ETV
attr interpolationmode none
attr recordingmode vector
attr title "backoff periods"
vector 18 ManetprotocolsShowcaseA.source.wlan[0].mac.dcf.channelAccess.contention backoffActive:vector ETV
attr autoWarmupFilter false
attr interpolationmode sample-hold
attr recordingmode vector
attr source warmup(count(backoffStarted)-count(backoffStopped))
attr title "backoff active"
vector 19 ManetprotocolsShowcaseA.source.wlan[0].mac.dcf.channelAccess.contention stateChanged:vector ETV
attr enum IDLE,DEFER,IFS_AND_BACKOFF
attr interpolationmode none
attr recordingmode vector
attr title "contention state changed"
attr type enum
vector 20 ManetprotocolsShowcaseA.source.wlan[0].mac.dcf.recipientMacDataService packetDropDuplicateDetected:vector(packetBytes) ETV
attr interpolationmode none
attr recordingmode vector(packetBytes)
attr source packetDropReasonIsDuplicateDetected(packetDropped)
attr title "packet drops: duplicate detected, packetBytes"
vector 21 ManetprotocolsShowcaseA.source.wlan[0].mac.dcf.recoveryProcedure contentionWindowChanged:vector ETV
attr interpolationmode sample-hold
attr recordingmode vector
attr title "contention window"
vector 22 ManetprotocolsShowcaseA.source.wlan[0].mac.dcf packetSentToPeer:vector(packetBytes) ETV
attr interpolationmode none
attr recordingmode vector(packetBytes)
attr title "packets sent, packetBytes"
vector 23 ManetprotocolsShowcaseA.source.wlan[0].mac.dcf packetSentToPeerUnicast:vector(packetBytes) ETV
attr interpolationmode none
attr recordingmode vector(packetBytes)
attr source ieee80211Unicast(packetSentToPeer)
attr title "packets sent: unicast, packetBytes"
vector 24 ManetprotocolsShowcaseA.source.wlan[0].mac.dcf packetSentToPeerMulticast:vector(packetBytes) ETV
attr interpolationmode none
attr recordingmode vector(packetBytes)
attr source ieee80211Multicast(packetSentToPeer)
attr title "packets sent: multicast, packetBytes"
vector 25 ManetprotocolsShowcaseA.source.wlan[0].mac.dcf packetSentToPeerBroadcast:vector(packetBytes) ETV
attr interpolationmode none
attr recordingmode vector(packetBytes)
attr source ieee80211Broadcast(packetSentToPeer)
attr title "packets sent: broadcast , packetBytes"
vector 26 ManetprotocolsShowcaseA.source.wlan[0].mac.dcf packetSentToPeerWithRetry:vector(packetBytes) ETV
attr interpolationmode none
attr recordingmode vector(packetBytes)
attr source ieee80211Retry(packetSentToPeer)
attr title "packets sent: with retry, packetBytes"
vector 27 ManetprotocolsShowcaseA.source.wlan[0].mac.dcf packetSentToPeerWithoutRetry:vector(packetBytes) ETV
attr interpolationmode none
attr recordingmode vector(packetBytes)
attr source ieee80211NotRetry(packetSentToPeer)
attr title "packets sent: without retry, packetBytes"
vector 28 ManetprotocolsShowcaseA.source.wlan[0].mac.dcf packetReceivedFromPeer:vector(packetBytes) ETV
attr interpolationmode none
attr recordingmode vector(packetBytes)
attr title "packets received, packetBytes"
vector 29 ManetprotocolsShowcaseA.source.wlan[0].mac.dcf packetReceivedFromPeerUnicast:vector(packetBytes) ETV
attr interpolationmode none
attr recordingmode vector(packetBytes)
attr source ieee80211Unicast(packetReceivedFromPeer)
attr title "packets received: unicast, packetBytes"
vector 30 ManetprotocolsShowcaseA.source.wlan[0].mac.dcf packetReceivedFromPeerMulticast:vector(packetBytes) ETV
attr interpolationmode none
attr recordingmode vector(packetBytes)
attr source ieee80211Multicast(packetReceivedFromPeer)
attr title "packets received: multicast, packetBytes"
vector 31 ManetprotocolsShowcaseA.source.wlan[0].mac.dcf packetReceivedFromPeerBroadcast:vector(packetBytes) ETV
attr interpolationmode none
attr recordingmode vector(packetBytes)
attr source ieee80211Broadcast(packetReceivedFromPeer)
attr title "packets received: broadcast, packetBytes"
vector 32 ManetprotocolsShowcaseA.source.wlan[0].mac.dcf packetReceivedFromPeerWithRetry:vector(packetBytes) ETV
attr interpolationmode none
attr recordingmode vector(packetBytes)
attr source ieee80211Retry(packetReceivedFromPeer)
attr title "packets received: with retry, packetBytes"
vector 33 ManetprotocolsShowcaseA.source.wlan[0].mac.dcf packetReceivedFromPeerWithoutRetry:vector(packetBytes) ETV
attr interpolationmode none
attr recordingmode vector(packetBytes)
attr source ieee80211NotRetry(packetReceivedFromPeer)
attr title "packets received: without retry, packetBytes"
vector 34 ManetprotocolsShowcaseA.source.wlan[0].mac.dcf packetDrop:vector(packetBytes) ETV
attr interpolationmode none
attr recordingmode vector(packetBytes)
attr source packetDropped
attr title "packet drops, packetBytes"
vector 35 ManetprotocolsShowcaseA.source.wlan[0].mac.dcf packetDropNotAddressedToUs:vector(packetBytes) ETV
attr interpolationmode none
attr recordingmode vector(packetBytes)
attr source packetDropReasonIsNotAddressedToUs(packetDropped)
attr title "packet drops: not addressed to us, packetBytes"
vector 36 ManetprotocolsShowcaseA.source.wlan[0].mac.dcf packetDropQueueOverflow:vector(packetBytes) ETV
attr interpolationmode none
attr recordingmode vector(packetBytes)
attr source packetDropReasonIsQueueOverflow(packetDropped)
attr title "packet drops: queue overflow, packetBytes"
vector 37 ManetprotocolsShowcaseA.source.wlan[0].mac.dcf packetDropRetryLimitReached:vector(packetBytes) ETV
attr interpolationmode none
attr recordingmode vector(packetBytes)
attr source packetDropReasonIsRetryLimitReached(packetDropped)
attr title "packet drops: retry limit reached, packetBytes"
vector 38 ManetprotocolsShowcaseA.source.wlan[0].mac.dcf frameSequenceActive:vector ETV
attr autoWarmupFilter false
attr interpolationmode sample-hold
attr recordingmode vector
attr source warmup(count(frameSequenceStarted)-count(frameSequenceFinished))
attr title "frame sequence active"
vector 39 ManetprotocolsShowcaseA.source.wlan[0].mac.dcf datarateSelected:vector ETV
attr interpolationmode none
attr recordingmode vector
attr title "datarates selected"
vector 40 ManetprotocolsShowcaseA.source.wlan[0].mac.rx nav:vector ETV
attr interpolationmode linear
attr recordingmode vector
attr source navChanged
attr title "network allocation vector"
vector 41 ManetprotocolsShowcaseA.source.wlan[0].mac packetSentToUpper:vector(packetBytes) ETV
attr interpolationmode none
attr recordingmode vector(packetBytes)
attr title "packets sent to upper layer, packetBytes"
vector 42 ManetprotocolsShowcaseA.source.wlan[0].mac packetSentToLower:vector(packetBytes) ETV
attr interpolationmode none
attr recordingmode vector(packetBytes)
attr title "packets sent to lower layer, packetBytes"
vector 43 ManetprotocolsShowcaseA.source.wlan[0].mac packetReceivedFromUpper:vector(packetBytes) ETV
attr interpolationmode none
attr recordingmode vector(packetBytes)
attr title "packets received from upper layer, packetBytes"
vector 44 ManetprotocolsShowcaseA.source.wlan[0].mac packetReceivedFromLower:vector(packetBytes) ETV
attr interpolationmode none
attr recordingmode vector(packetBytes)
attr title "packets received from lower layer, packetBytes"
vector 45 ManetprotocolsShowcaseA.source.wlan[0].mac packetDrop:vector(packetBytes) ETV
attr interpolationmode none
attr recordingmode vector(packetBytes)
attr source packetDropped
attr title "packet drops, packetBytes"
vector 46 ManetprotocolsShowcaseA.source.wlan[0].mac packetDropIncorrectlyReceived:vector(packetBytes) ETV
attr interpolationmode none
attr recordingmode vector(packetBytes)
attr source packetDropReasonIsIncorrectlyReceived(packetDropped)
attr title "packet drops: incorrectly received, packetBytes"
vector 47 ManetprotocolsShowcaseA.source.wlan[0].mac packetDropNotAddressedToUs:vector(packetBytes) ETV
attr interpolationmode none
attr recordingmode vector(packetBytes)
attr source packetDropReasonIsNotAddressedToUs(packetDropped)
attr title "packet drops: not addressed to us, packetBytes"
vector 48 ManetprotocolsShowcaseA.source.wlan[0].mac packetDropQueueOverflow:vector(packetBytes) ETV
attr interpolationmode none
attr recordingmode vector(packetBytes)
attr source packetDropReasonIsQueueOverflow(packetDropped)
attr title "packet drops: queue overflow, packetBytes"
vector 49 ManetprotocolsShowcaseA.source.wlan[0].mac packetDropRetryLimitReached:vector(packetBytes) ETV
attr interpolationmode none
attr recordingmode vector(packetBytes)
attr source packetDropReasonIsRetryLimitReached(packetDropped)
attr title "packet drops: retry limit reached, packetBytes"
vector 50 ManetprotocolsShowcaseA.source.wlan[0].mac packetDropDuplicateDetected:vector(packetBytes) ETV
attr interpolationmode none
attr recordingmode vector(packetBytes)
attr source packetDropReasonIsDuplicateDetected(packetDropped)
attr title "packet drops: duplicate detected, packetBytes"
vector 51 ManetprotocolsShowcaseA.source.wlan[0].mac packetDropOther:vector(packetBytes) ETV
attr interpolationmode none
attr recordingmode vector(packetBytes)
attr source packetDropReasonIsOther(packetDropped)
attr title "packet drops: other, packetBytes"
vector 52 ManetprotocolsShowcaseA.source.wlan[0].radio radioMode:vector ETV
attr interpolationmode sample-hold
attr recordingmode vector
attr source radioModeChanged
attr title "Radio mode"
vector 53 ManetprotocolsShowcaseA.source.wlan[0].radio receptionState:vector ETV
attr interpolationmode sample-hold
attr recordingmode vector
attr source receptionStateChanged
attr title "Radio reception state"
vector 54 ManetprotocolsShowcaseA.source.wlan[0].radio transmissionState:vector ETV
attr interpolationmode sample-hold
attr recordingmode vector
attr source transmissionStateChanged
attr title "Radio transmission state"
vector 55 ManetprotocolsShowcaseA.source.wlan[0].radio radioChannel:vector ETV
attr interpolationmode sample-hold
attr recordingmode vector
attr source radioChannelChanged
attr title "Radio channel"
vector 56 ManetprotocolsShowcaseA.source.wlan[0] packetDropInterfaceDown:vector(packetBytes) ETV
attr interpolationmode none
attr recordingmode vector(packetBytes)
attr source packetDropReasonIsInterfaceDown(packetDropped)
attr title "packet drops: interface down, packetBytes"
vector 57 ManetprotocolsShowcaseA.source.wlan[0] packetDropNoCarrier:vector(packetBytes) ETV
attr interpolationmode none
attr recordingmode vector(packetBytes)
attr source packetDropReasonIsNoCarrier(packetDropped)
attr title "packet drops: no carrier, packetBytes"
vector 58 ManetprotocolsShowcaseA.source.ipv4.ip packetDropAddressResolutionFailed:vector(packetBytes) ETV
attr interpolationmode none
attr recordingmode vector(packetBytes)
attr source packetDropReasonIsAddressResolutionFailed(packetDropped)
attr title "packet drop: address resolution failed, packetBytes"
vector 59 ManetprotocolsShowcaseA.source.ipv4.ip packetDropHopLimitReached:vector(packetBytes) ETV
attr interpolationmode none
attr recordingmode vector(packetBytes)
attr source packetDropReasonIsHopLimitReached(packetDropped)
attr title "packet drop: hop limit reached, packetBytes"
vector 60 ManetprotocolsShowcaseA.source.ipv4.ip packetDropForwardingDisabled:vector(packetBytes) ETV
attr interpolationmode none
attr recordingmode vector(packetBytes)
attr source packetDropReasonIsForwardingDisabled(packetDropped)
attr title "packet drop: forwarding disabled, packetBytes"
vector 61 ManetprotocolsShowcaseA.source.ipv4.ip packetDropNoInterfaceFound:vector(packetBytes) ETV
attr interpolationmode none
attr recordingmode vector(packetBytes)
attr source packetDropReasonIsNoInterfaceFound(packetDropped)
attr title "packet drop: no interface found, packetBytes"
vector 62 ManetprotocolsShowcaseA.source.ipv4.ip packetDropNoRouteFound:vector(packetBytes) ETV
attr interpolationmode none
attr recordingmode vector(packetBytes)
attr source packetDropReasonIsNoRouteFound(packetDropped)
attr title "packet drop: no route found, packetBytes"
vector 63 ManetprotocolsShowcaseA.source.ipv4.ip packetDropUndefined:vector(packetBytes) ETV
attr interpolationmode none
attr recordingmode vector(packetBytes)
attr source packetDropReasonIsUndefined(packetDropped)
attr title "packet drop: undefined, packetBytes"
vector 64 ManetprotocolsShowcaseA.source.udp packetSent:vector(packetBytes) ETV
attr interpolationmode none
attr recordingmode vector(packetBytes)
attr source packetSent
attr title "packets sent, packetBytes"
vector 65 ManetprotocolsShowcaseA.source.udp packetReceived:vector(packetBytes) ETV
attr interpolationmode none
attr recordingmode vector(packetBytes)
attr source packetReceived
attr title "packets received, packetBytes"
vector 66 ManetprotocolsShowcaseA.source.udp passedUpPk:vector(count) ETV
attr interpolationmode none
attr recordingmode vector(count)
attr source packetSentToUpper
attr title "packets passed up, count"
vector 67 ManetprotocolsShowcaseA.source.udp droppedPkWrongPort:vector(count) ETV
attr interpolationmode none
attr recordingmode vector(count)
attr source packetDropReasonIsNoPortFound(packetDropped)
attr title "packets dropped (wrong port), count"
vector 68 ManetprotocolsShowcaseA.source.udp droppedPkBadChecksum:vector(count) ETV
attr interpolationmode none
attr recordingmode vector(count)
attr source packetDropReasonIsIncorrectlyReceived(packetDropped)
attr title "packets dropped (checksum error), count"
vector 69 ManetprotocolsShowcaseA.source.app[0] rtt:vector ETV
attr interpolationmode none
attr recordingmode vector
attr title "ping round-trip time"
attr unit s
vector 70 ManetprotocolsShowcaseA.source.app[0] numLost:vector ETV
attr interpolationmode none
attr recordingmode vector
attr title "pings lost"
vector 71 ManetprotocolsShowcaseA.source.app[0] numOutOfOrderArrivals:vector ETV
attr interpolationmode none
attr recordingmode vector
attr title "ping out-of-order arrivals"
vector 72 ManetprotocolsShowcaseA.source.app[0] pingTxSeq:vector ETV
attr interpolationmode none
attr recordingmode vector
attr title "ping tx seq"
vector 73 ManetprotocolsShowcaseA.source.app[0] pingRxSeq:vector ETV
attr interpolationmode none
attr recordingmode vector
attr title "ping rx seq"
vector 74 ManetprotocolsShowcaseA.destination.lo[0].lo rcvdPkFromHl:vector(packetBytes) ETV
attr interpolationmode none
attr recordingmode vector(packetBytes)
attr source packetReceivedFromUpper
attr title "packets received from higher layer, packetBytes"
vector 75 ManetprotocolsShowcaseA.destination.lo[0].lo passedUpPk:vector(packetBytes) ETV
attr interpolationmode none
attr recordingmode vector(packetBytes)
attr source packetSentToUpper
attr title "packets passed to higher layer, packetBytes"
vector 76 ManetprotocolsShowcaseA.destination.lo[0] packetDropInterfaceDown:vector(packetBytes) ETV
attr interpolationmode none
attr recordingmode vector(packetBytes)
attr source packetDropReasonIsInterfaceDown(packetDropped)
attr title "packet drops: interface down, packetBytes"
vector 77 ManetprotocolsShowcaseA.destination.lo[0] packetDropNoCarrier:vector(packetBytes) ETV
attr interpolationmode none
attr recordingmode vector(packetBytes)
attr source packetDropReasonIsNoCarrier(packetDropped)
attr title "packet drops: no carrier, packetBytes"
vector 78 ManetprotocolsShowcaseA.destination.wlan[0].mac.dcf.channelAccess.pendingQueue queueLength:vector ETV
attr autoWarmupFilter false
attr interpolationmode sample-hold
attr recordingmode vector
attr source "warmup(atomic(constant0(packetPushEnded) + count(packetPushStarted) - count(packetPulled) - count(packetRemoved) - count(packetDropped)))"
attr title "queue length"
attr unit pk
vector 79 ManetprotocolsShowcaseA.destination.wlan[0].mac.dcf.channelAccess.pendingQueue queueBitLength:vector ETV
attr autoWarmupFilter false
attr interpolationmode sample-hold
attr recordingmode vector
attr source "warmup(atomic(constant0(packetPushEnded) + sum(packetLength(packetPushStarted)) - sum(packetLength(packetPulled)) - sum(packetLength(packetRemoved)) - sum(packetLength(packetDropped))))"
attr title "queue bit length"
attr unit b
vector 80 ManetprotocolsShowcaseA.destination.wlan[0].mac.dcf.channelAccess.pendingQueue queueingTime:vector ETV
attr interpolationmode none
attr recordingmode vector
attr source queueingTime(packetPulled)
attr title "queueing times"
attr unit s
vector 81 ManetprotocolsShowcaseA.destination.wlan[0].mac.dcf.channelAccess.pendingQueue incomingPacketLengths:vector ETV
attr interpolationmode none
attr recordingmode vector
attr source packetLength(packetPushStarted)
attr title "incoming packet lengths"
attr unit b
vector 82 ManetprotocolsShowcaseA.destination.wlan[0].mac.dcf.channelAccess.pendingQueue incomingDataRate:vector ETV
attr interpolationmode linear
attr recordingmode vector
attr source throughput(packetPushStarted)
attr title "incoming datarate"
attr unit bps
vector 83 ManetprotocolsShowcaseA.destination.wlan[0].mac.dcf.channelAccess.pendingQueue outgoingPacketLengths:vector ETV
attr interpolationmode none
attr recordingmode vector
attr source packetLength(packetPulled)
attr title "outgoing packet lengths"
attr unit b
vector 84 ManetprotocolsShowcaseA.destination.wlan[0].mac.dcf.channelAccess.pendingQueue outgoingDataRate:vector ETV
attr interpolationmode linear
attr recordingmode vector
attr source throughput(packetPulled)
attr title "outgoing datarate"
attr unit bps
vector 85 ManetprotocolsShowcaseA.destination.wlan[0].mac.dcf.channelAccess.pendingQueue droppedPacketLengthsQueueOverflow:vector ETV
attr interpolationmode none
attr recordingmode vector
attr source packetLength(packetDropReasonIsQueueOverflow(packetDropped))
attr title "dropped packet lengths: queue overflow"
attr unit b
vector 86 ManetprotocolsShowcaseA.destination.wlan[0].mac.dcf.channelAccess.pendingQueue flowQueueingTime:vector ETV
attr interpolationmode none
attr recordingmode vector
attr source queueingTime(demuxFlow(packetPulled))
attr title "flow queueing times"
attr unit s
vector 87 ManetprotocolsShowcaseA.destination.wlan[0].mac.dcf.channelAccess.pendingQueue flowIncomingDataRate:vector ETV
attr interpolationmode linear
attr recordingmode vector
attr source throughput(flowPacketLength(demuxFlow(packetPushStarted)))
attr title "flow specific incoming data rate"
attr unit bps
vector 88 ManetprotocolsShowcaseA.destination.wlan[0].mac.dcf.channelAccess.pendingQueue flowOutgoingDataRate:vector ETV
attr interpolationmode linear
attr recordingmode vector
attr source throughput(flowPacketLength(demuxFlow(packetPulled)))
attr title "flow specific outgoing data rate"
attr unit bps
vector 89 ManetprotocolsShowcaseA.destination.wlan[0].mac.dcf.channelAccess.inProgressFrames queueingTime:vector ETV
attr interpolationmode none
attr recordingmode vector
attr source queueingTime(packetDequeued)
attr title "queueing times"
vector 90 ManetprotocolsShowcaseA.destination.wlan[0].mac.dcf.channelAccess.inProgressFrames queueLength:vector ETV
attr autoWarmupFilter false
attr interpolationmode sample-hold
attr recordingmode vector
attr source "warmup(count(packetEnqueued) - count(packetDequeued))"
attr title "queue length"
vector 91 ManetprotocolsShowcaseA.destination.wlan[0].mac.dcf.channelAccess.contention backoffPeriodGenerated:vector ETV
attr interpolationmode none
attr recordingmode vector
attr title "backoff periods"
vector 92 ManetprotocolsShowcaseA.destination.wlan[0].mac.dcf.channelAccess.contention backoffActive:vector ETV
attr autoWarmupFilter false
attr interpolationmode sample-hold
attr recordingmode vector
attr source warmup(count(backoffStarted)-count(backoffStopped))
attr title "backoff active"
vector 93 ManetprotocolsShowcaseA.destination.wlan[0].mac.dcf.channelAccess.contention stateChanged:vector ETV
attr enum IDLE,DEFER,IFS_AND_BACKOFF
attr interpolationmode none
attr recordingmode vector
attr title "contention state changed"
attr type enum
vector 94 ManetprotocolsShowcaseA.destination.wlan[0].mac.dcf.recipientMacDataService packetDropDuplicateDetected:vector(packetBytes) ETV
attr interpolationmode none
attr recordingmode vector(packetBytes)
attr source packetDropReasonIsDuplicateDetected(packetDropped)
attr title "packet drops: duplicate detected, packetBytes"
vector 95 ManetprotocolsShowcaseA.destination.wlan[0].mac.dcf.recoveryProcedure contentionWindowChanged:vector ETV
attr interpolationmode sample-hold
attr recordingmode vector
attr title "contention window"
vector 96 ManetprotocolsShowcaseA.destination.wlan[0].mac.dcf packetSentToPeer:vector(packetBytes) ETV
attr interpolationmode none
attr recordingmode vector(packetBytes)
attr title "packets sent, packetBytes"
vector 97 ManetprotocolsShowcaseA.destination.wlan[0].mac.dcf packetSentToPeerUnicast:vector(packetBytes) ETV
attr interpolationmode none
attr recordingmode vector(packetBytes)
attr source ieee80211Unicast(packetSentToPeer)
attr title "packets sent: unicast, packetBytes"
vector 98 ManetprotocolsShowcaseA.destination.wlan[0].mac.dcf packetSentToPeerMulticast:vector(packetBytes) ETV
attr interpolationmode none
attr recordingmode vector(packetBytes)
attr source ieee80211Multicast(packetSentToPeer)
attr title "packets sent: multicast, packetBytes"
vector 99 ManetprotocolsShowcaseA.destination.wlan[0].mac.dcf packetSentToPeerBroadcast:vector(packetBytes) ETV
attr interpolationmode none
attr recordingmode vector(packetBytes)
attr source ieee80211Broadcast(packetSentToPeer)
attr title "packets sent: broadcast , packetBytes"
vector 100 ManetprotocolsShowcaseA.destination.wlan[0].mac.dcf packetSentToPeerWithRetry:vector(packetBytes) ETV
attr interpolationmode none
attr recordingmode vector(packetBytes)
attr source ieee80211Retry(packetSentToPeer)
attr title "packets sent: with retry, packetBytes"
vector 101 ManetprotocolsShowcaseA.destination.wlan[0].mac.dcf packetSentToPeerWithoutRetry:vector(packetBytes) ETV
attr interpolationmode none
attr recordingmode vector(packetBytes)
attr source ieee80211NotRetry(packetSentToPeer)
attr title "packets sent: without retry, packetBytes"
vector 102 ManetprotocolsShowcaseA.destination.wlan[0].mac.dcf packetReceivedFromPeer:vector(packetBytes) ETV
attr interpolationmode none
attr recordingmode vector(packetBytes)
attr title "packets received, packetBytes"
vector 103 ManetprotocolsShowcaseA.destination.wlan[0].mac.dcf packetReceivedFromPeerUnicast:vector(packetBytes) ETV
attr interpolationmode none
attr recordingmode vector(packetBytes)
attr source ieee80211Unicast(packetReceivedFromPeer)
attr title "packets received: unicast, packetBytes"
vector 104 ManetprotocolsShowcaseA.destination.wlan[0].mac.dcf packetReceivedFromPeerMulticast:vector(packetBytes) ETV
attr interpolationmode none
attr recordingmode vector(packetBytes)